# vtk DataFile Version 2.0
rve, Created by Gmsh
ASCII
DATASET UNSTRUCTURED_GRID
POINTS 783 double
100 -0.0890036 9.446619999999999
41.7377 -25.3475 -100
62.1757 -100 46.1909
-25.4211 -100 4.37496
51.2125 52.5085 100
-31.3814 84.8399 -100
20.8343 13.2196 -100
8.35158 100 76.6705
-14.7464 -100 -42.1539
-100 -90.7869 -45.5021
-100 23.3426 -39.8215
-28.0533 100 -11.8228
-59.7272 -34.4544 -100
100 -54.3018 42.9114
16.5723 -100 61.2839
-89.402 -100 -76.5732
-100 -7.8555 -26.4886
49.6453 -100 51.6161
-83.0176 100 19.3679
73.52679999999999 100 -5.1651
100 -50.9601 -42.2249
-100 66.7724 10.6002
-20.8572 42.8558 100
-100 -59.8257 69.36150000000001
-45.7989 45.2397 100
82.6887 100 -26.5335
-93.245 100 -26.8847
-33.7981 87.7878 100
100 58.5039 87.5039
100 58.5489 91.7266
33.8516 11.8904 100
-39.2257 100 19.2072
-6.08982 18.9211 -100
-100 44.9139 69.13339999999999
77.5295 -100 -78.47929999999999
94.88720000000001 100 52.7042
-92.3537 14.4631 100
-100 67.3002 49.2385
81.1151 100 14.4395
27.6392 -58.3222 100
0.06529550000000001 -74.4902 -100
100 81.4289 -81.1186
100 -10.6975 33.1506
45.0368 52.7014 100
-64.5698 -100 9.87839
44.2492 100 -57.6483
13.387 -4.77242 100
-100 -20.8016 -49.9887
99.1486 100 -14.9772
74.3439 -38.2027 100
60.0714 57.6043 100
-100 -4.12718 -3.8131
81.2106 -65.6932 100
-90.6865 -100 36.5107
16.2219 100 14.1657
53.6346 -100 88.0463
-69.84990000000001 -89.54940000000001 -100
99.6555 -12.4077 100
100 84.3458 -44.3129
68.4593 1.26515 100
-38.0948 -82.1773 100
-47.4483 -77.9143 -100
-1.1503 57.5444 -100
92.00749999999999 -9.50071 100
39.9928 19.6476 100
-100 -8.465009999999999 42.1007
-100 -85.48480000000001 71.9601
100 -26.845 86.7533
58.0121 -61.3073 -100
100 40.6479 94.2535
100 44.9663 -19.6237
-51.5831 100 87.0192
-68.48860000000001 59.4892 -100
100 -48.3842 67.6859
51.4823 100 75.7259
-65.17449999999999 48.9498 100
-6.16545 96.33839999999999 100
16.7164 -100 -9.804919999999999
35.0168 -57.527 100
-100 -74.964 13.3776
13.1868 -100 29.4833
100 38.3399 -45.8225
-100 98.4695 17.8274
100 76.8095 16.9956
-15.3299 -100 -48.3815
100 -9.57124 -36.7899
-85.11539999999999 -100 18.4148
-96.2433 100 23.262
4.69927 90.1906 -100
22.3737 -95.639 -100
-64.5428 -100 11.6294
-9.914580000000001 100 -83.44329999999999
-100 -82.983 -69.8771
-25.1845 100 -41.3846
-87.42659999999999 100 63.4208
-28.8878 -100 -55.7963
-100 -69.56100000000001 -81.47239999999999
10.2793 100 -68.4469
-90.1511 -69.57550000000001 -100
57.0791 18.0743 -100
-17.5762 100 30.4001
-26.116 -100 -74.2916
-40.8638 -100 7.88075
62.7801 60.9935 100
100 -15.382 98.80029999999999
-77.7213 38.693 -100
-17.1171 100 -11.7727
-25.5743 -25.7134 100
100 37.8184 -30.952
-77.28489999999999 100 55.5688
41.1403 46.5312 100
100 -51.8357 81.73690000000001
80.7838 100 -57.9412
-100 -36.0049 19.0047
73.64190000000001 -43.3388 100
92.30459999999999 -100 -11.0194
100 -27.0133 -4.23811
100 -1.4224 17.4702
-9.42076 -61.0794 100
100 -36.9691 -84.8848
23.9543 100 24.074
-100 -18.7628 66.39919999999999
-99.5647 100 84.4603
-100 -26.6023 -39.634
-32.6194 -100 84.4254
-100 -52.3947 61.9362
-62.7955 -53.1944 100
64.3292 100 91.3212
-100 -59.0194 -82.8184
21.4137 -25.1229 100
-18.23 32.6351 -100
56.5741 -64.51900000000001 -100
-100 -9.16405 59.4319
-37.0932 -83.4298 100
100 49.6611 -9.27947
16.9719 -100 54.1478
-100 37.4796 75.3758
-23.5331 -100 6.38262
-26.4041 74.4731 100
10.3554 100 44.7279
40.5325 -67.90479999999999 100
-32.1582 -4.70781 100
-3.63006 -4.45508 -100
16.0375 77.5907 100
100 90.68989999999999 30.3833
91.6825 15.4253 -100
-76.9186 64.5077 -100
61.2552 -61.0579 -100
-36.5699 93.5389 100
-100 76.2647 -67.96720000000001
35.0853 -16.7582 100
46.2222 -100 -57.1546
5.92632 52.8772 100
31.2506 78.4875 100
67.41800000000001 -100 -41.0663
-69.3622 100 -69.93210000000001
-100 -30.4457 -52.1539
-100 78.4729 -24.5182
100 -49.1591 -37.8184
-35.5108 -100 -42.0057
-9.04602 100 -6.65742
3.31148 100 -94.319
-15.6295 79.895 -100
-100 -17.6439 67.7688
45.5534 -87.2974 100
-64.9629 -31.4351 -100
-39.7871 100 12.871
28.7438 -31.9869 100
92.35290000000001 -84.3381 100
-65.56489999999999 15.0888 100
100 -24.457 20.7627
1.16769 -100 88.4058
100 44.4279 86.1377
-100 67.8935 -54.7699
-37.3398 -100 -26.7947
-78.1309 -100 -83.81829999999999
52.3275 -11.5796 100
-100 -18.6465 -21.4914
-64.8545 -51.8 100
-72.3413 100 38.3497
-100 -13.2149 50.9787
-74.0635 68.64279999999999 100
-81.846 29.7021 100
-60.7747 0.695431 100
18.2438 24.1195 -100
-100 17.7322 74.2324
19.0872 100 59.3255
31.5928 -90.77160000000001 -100
-40.6958 100 84.9987
-92.101 100 -24.1967
-84.92270000000001 -100 23.3759
13.3416 100 -75.39619999999999
-49.2459 100 52.7804
55.5106 -63.6768 -100
99.464 -19.8437 100
-75.64530000000001 36.5659 -100
-41.9665 -100 -6.4572
23.0516 0.380891 -100
100 82.7376 -19.2185
-100 51.8221 -60.337
-100 10.4493 -87.5916
-88.0628 -100 58.6125
-37.6764 100 10.1228
89.0299 100 -59.1293
100 -32.0371 25.8182
100 -38.6021 -24.1156
92.5468 75.1187 100
36.0832 19.4375 100
-54.8366 -100 -20.983
64.8372 100 24.3389
100 35.6291 -46.0797
100 11.19 69.2634
100 -21.2234 -4.41015
39.9331 22.8665 -100
46.5709 -54.7926 100
-100 96.28149999999999 45.2738
65.9545 -100 0.347021
48.609 100 2.52776
70.72499999999999 -100 97.2653
-47.7689 100 67.7885
25.6948 -37.8781 -100
100 34.938 11.7705
100 12.0314 14.383
-56.172 -100 -5.20397
-100 -82.29089999999999 51.4395
-87.5943 100 -44.0331
-40.6273 100 -65.93259999999999
100 -33.2689 -67.44629999999999
-53.6951 -42.6681 -100
100 100 -100
-62.6852 -100 30.6724
-91.9093 100 -50.9131
-100 18.1733 22.1406
-100 -92.596 -28.0797
-79.506 -99.37779999999999 -100
83.6297 73.65049999999999 100
-100 -54.5777 -7.78768
-71.4991 -7.05048 100
100 75.48569999999999 69.4821
100 99.47190000000001 -10.5088
100 -65.38160000000001 14.4213
-59.9616 100 -47.1174
-100 49.3944 100
-100 80.5502 14.2988
-100 -90.12949999999999 -85.74379999999999
-41.9866 -24.0524 -100
100 -22.8627 -68.7805
-94.4742 100 62.9706
-100 -44.5664 -19.0309
51.9711 100 -46.8649
-100 41.346 -11.0078
-100 7.5943 -67.6314
100 45.8219 86.681
-1.58177 63.0601 -100
-30.8346 -100 95.4705
58.9394 -100 93.9222
-100 27.7781 -59.9531
68.78279999999999 18.6809 100
-79.3807 -100 46.1815
-88.435 -100 81.99250000000001
-81.55929999999999 100 -25.2265
-100 76.5742 -27.4725
19.986 100 29.3475
21.5375 -3.82939 -100
-100 -53.1244 -80.5157
100 50.0833 96.8282
-100 13.7731 -69.12569999999999
-100 -67.4864 -60.8471
52.0066 -100 -24.2602
-100 4.84134 -68.43429999999999
60.1748 -100 20.2002
-67.3516 -49.1292 100
100 72.41889999999999 53.5901
100 87.0294 80.0703
100 59.7712 74.8322
-63.2079 -100 36.8865
-98.7539 85.2975 -100
100 85.5005 98.5039
100 57.3926 55.4358
100 -60.3338 -8.178100000000001
-75.123 -100 -23.7218
20.7183 18.9848 -100
77.1966 -100 6.19601
100 -33.6609 80.7821
-48.9196 100 -17.5717
29.9311 100 -93.1816
71.01430000000001 85.63200000000001 100
60.7493 100 49.265
15.5575 -100 33.7555
100 1.03995 96.3015
40.4356 65.52370000000001 -100
24.5029 57.3333 100
-71.4306 100 14.2642
-0.885152 74.0761 100
57.1263 -100 -98.1632
-29.8778 100 -51.8612
44.3438 100 -36.7061
100 46.6186 -26.7637
-34.9927 -81.6922 -100
5.01329 100 -86.4851
100 -34.585 42.3354
-73.229 84.84820000000001 100
100 -52.7713 -31.6109
-48.8224 -10.4022 -100
-12.9701 -100 -3.29643
-100 -19.2541 48.8989
-100 -66.78700000000001 15.5654
85.3861 52.9786 -100
-19.0931 -52.0651 -100
-33.6869 23.6185 100
2.31293 51.6428 100
-67.9175 15.0953 -100
71.0732 100 54.1408
96.5883 -3.88868 5.27382
38.207 -33.8738 -79.14790000000001
66.145 -97.50960000000001 48.0999
-22.6542 -96.9016 10.8198
86.1354 83.97880000000001 51.3406
81.4513 79.3796 39.5056
46.598 36.1015 79.2176
-1.70102 -33.25 -7.47743
-37.6503 -56.7509 -19.8896
-17.3966 86.434 -94.3014
-82.66419999999999 -11.5549 -40.9293
-95.5949 -60.5692 -65.3917
31.3313 17.7068 -76.6983
-7.98681 29.395 -32.7258
-25.1585 20.1197 -38.3612
-12.8101 -68.50920000000001 -39.9032
-48.5151 -63.8611 -66.08629999999999
-28.3331 53.9645 68.80329999999999
-39.2428 -86.84439999999999 97.0269
-38.4438 -96.86709999999999 89.54810000000001
-82.12560000000001 -88.29600000000001 38.4167
-82.4443 -91.21559999999999 35.583
-13.8466 -83.92059999999999 -25.4651
-40.8999 -10.1646 76.6318
-29.6718 -45.598 30.0605
60.8403 73.8908 -24.0788
12.7763 42.5457 -48.0983
-49.222 88.56870000000001 -21.4685
-54.7212 84.67740000000001 -26.3204
-61.9231 45.7455 -47.3018
-67.89490000000001 40.5468 -50.7974
60.3676 93.7929 13.3408
51.9599 82.9136 1.06946
-40.5676 65.6369 -12.8383
-55.4687 51.7575 -36.8856
67.94410000000001 12.2119 42.5846
66.9881 10.8382 39.0404
-14.6254 -33.4493 -77.9644
-18.1642 -41.7811 -83.6575
-72.84690000000001 -97.1113 -27.4485
89.1084 -1.74949 -63.4613
80.4301 -5.23791 -64.1623
-82.327 -9.87562 -11.9489
-89.41 -41.8255 -18.4561
94.42529999999999 41.3985 82.3086
86.995 42.5236 79.4299
-54.9509 -67.20820000000001 41.1251
-61.424 -75.3272 42.0723
2.62084 -12.8241 12.5292
-56.7504 -87.2897 -15.3613
-39.6226 -42.5413 -19.3099
-42.339 -43.7237 -21.0895
5.85689 81.8437 40.779
-5.97387 36.7032 36.1929
-5.67104 -48.8532 17.0623
-36.007 -52.2188 -9.403420000000001
-64.1169 28.253 22.6148
-46.3951 90.75149999999999 -25.0693
65.12260000000001 50.5187 -61.5126
58.2652 44.3804 -65.90949999999999
-43.8812 95.6384 84.74590000000001
-55.0488 83.57559999999999 81.7343
-75.2638 37.4871 -92.1101
-76.9538 35.3041 -92.75069999999999
17.3593 55.9382 -15.473
-5.46211 -53.6079 -31.137
-59.5708 -28.4824 -93.30240000000001
28.9404 10.0789 86.9354
19.4047 -13.7632 67.42489999999999
86.4516 -60.9156 35.4644
59.7626 5.74587 12.1092
59.0532 -8.096349999999999 -13.2513
-61.3148 64.6551 22.1278
-65.03530000000001 57.2851 16.8604
-10.303 -37.6964 9.13902
-28.0446 -42.4453 -7.43393
19.6628 -93.4436 62.5291
32.2715 9.820180000000001 93.977
21.1554 -6.77485 92.5472
-39.5905 -23.1717 -58.7457
-59.6387 38.3859 -49.6789
-83.4849 -9.02303 -40.723
65.4023 45.7929 71.0646
60.2572 4.51255 65.5594
49.3393 -16.8094 66.7672
26.1065 -42.9398 15.0911
-65.7445 -61.6181 -78.721
-53.7127 32.4107 -6.00608
[...]
CELL_DATA 1200
SCALARS CellEntityIds int 1
LOOKUP_TABLE default
1
1
1
1
1
1
1
1
1
1
1
1
1
1
1
1
1
1
1
1
1
1
1
1
1
1
1
1
1
1
1
1
1
1
1
1
1
1
1
1
1
1
1
1
1
1
1
1
1
1
1
1
1
1
1
1
1
1
1
1
1
1
1
1
1
1
1
1
1
1
1
1
1
1
1
1
1
1
1
1
1
1
1
1
1
1
1
1
1
1
1
1
1
1
1
1
1
1
1
1
1
1
1
1
1
1
1
1
1
1
1
1
1
1
1
1
1
1
1
1
1
1
1
1
1
1
1
1
1
1
1
1
1
1
1
1
1
1
1
1
1
1
1
1
1
1
1
1
1
1
1
1
1
1
1
1
1
1
1
1
1
1
1
1
1
1
1
1
1
1
1
1
1
1
1
1
1
1
1
1
1
1
1
1
1
1
1
1
1
1
1
1
1
1
1
1
1
1
1
1
1
1
1
1
1
1
1
1
1
1
1
1
1
1
1
1
1
1
1
1
1
1
1
1
1
1
1
1
1
1
1
1
1
1
1
1
1
1
1
1
1
1
1
1
1
1
1
1
1
1
1
1
1
1
1
1
1
1
1
1
1
1
1
1
1
1
1
1
1
1
1
1
1
1
1
1
1
1
1
1
1
1
1
1
1
1
1
1
1
1
1
1
1
1
1
1
1
1
1
1
1
1
1
1
1
1
1
1
1
1
1
1
1
1001
1001
1001
1001
1001
1001
1001
1001
1001
1001
1001
1001
1001
1001
1001
1001
1001
1001
1001
1001
1001
1001
1001
1001
1001
1001
1001
1001
1001
1001
1001
1001
1001
1001
1001
1001
1001
1001
1001
1001
1001
1001
1001
1001
1001
1001
1001
1001
1001
1001
1001
1001
1001
1001
1001
1001
1001
1001
1001
1001
1001
1001
1001
1001
1001
1001
1001
1001
1001
1001
1001
1001
1001
1001
1001
1001
1001
1001
1001
1001
1001
1001
1001
1001
1001
1001
1001
1001
1001
1001
1001
1001
1001
1001
1001
1001
1001
1001
1001
1001
1001
1001
1001
1001
1001
1001
1001
1001
1001
1001
1001
1001
1001
1001
1001
1001
1001
1001
1001
1001
1001
1001
1001
1001
1001
1001
1001
1001
1001
1001
1001
1001
1001
1001
1001
1001
1001
1001
1001
1001
1001
1001
1001
1001
1001
1001
1001
1001
1001
1001
1001
1001
1001
1001
1001
1001
1001
1001
1001
1001
1001
1001
1001
1001
1001
1001
1001
1001
1001
1001
1001
1001
1001
1001
1001
1001
1001
1001
1001
1001
1001
1001
1001
1001
1001
1001
1001
1001
1001
1001
1001
1001
1001
1001
1001
1001
1001
1001
1001
1001
1001
1001
1001
1001
1001
1001
1001
1001
1001
1001
1001
1001
1001
1001
1001
1001
1001
1001
1001
1001
1001
1001
1001
1001
1001
1001
1001
1001
1001
1001
1001
1001
1001
1001
1001
1001
1001
1001
1001
1001
1001
1001
1001
1001
1001
1001
1001
1001
1001
1001
1001
1001
1001
1001
1001
1001
1001
1001
1001
1001
1001
1001
1001
1001
1001
1001
1001
1001
1001
1001
1001
1001
1001
1001
1001
1001
1001
1001
1001
1001
1001
1001
1001
1001
1001
1001
1001
1001
1001
1001
1001
1001
1001
1001
1001
1001
1001
1001
1001
1001
1001
1001
1001
1001
1001
1001
1001
1001
1001
1001
1001
1001
1001
1001
1001
1001
1001
1001
1001
1001
1001
1001
1001
1001
1001
1001
1001
1001
1001
1001
1001
1001
1001
1001
1001
1001
1001
1001
1001
1001
1001
1001
1001
1001
1001
1001
1001
1001
1001
1001
1001
1001
1001
1001
1001
1001
1001
1001
1001
1001
1001
1001
1001
1001
1001
1001
1001
1001
1001
1001
1001
1001
1001
1001
1001
1001
1001
1001
1001
1001
1001
1001
1001
1001
1001
1001
1001
1001
1001
1001
1001
1001
1001
1001
1001
1001
1001
1001
1001
1001
1001
1001
1001
1001
1001
1001
1001
1001
1001
1001
1001
1001
1001
1001
1001
1001
1001
1001
1001
1001
1001
1001
1001
1001
1001
1001
1001
1001
1001
1001
1001
1001
1001
1001
1001
1001
1001
1001
1001
1001
1001
1001
1001
1001
1001
1001
1001
1001
1001
1001
1001
1001
1001
1001
1001
1001
1001
1001
1001
1001
1001
1001
1001
1001
1001
1001
1001
1001
1001
1001
1001
1001
1001
1001
1001
1001
1001
1001
1001
1001
1001
1001
1001
1001
1001
1001
1001
1001
1001
1001
1001
1001
1001
1001
1001
1001
1001
1001
1001
1001
1001
1001
1001
1001
1001
1001
1001
1001
1001
1001
1001
1001
1001
1001
1001
1001
1001
1001
1001
1001
1001
1001
1001
1001
1001
1001
1001
1001
1001
1001
1001
1001
1001
1001
1001
1001
1001
1001
1001
1001
1001
1001
1001
1001
1001
1001
1001
1001
1001
1001
1001
1001
1001
1001
1001
1001
1001
1001
1001
1001
1001
1001
1001
1001
1001
1001
1001
1001
1001
1001
1001
1001
1001
1001
1001
1001
1001
1001
1001
1001
1001
1001
1001
1001
1001
1001
1001
1001
1001
1001
1001
1001
1001
1001
1001
1001
1001
1001
1001
1001
1001
1001
1001
1001
1001
1001
1001
1001
1001
1001
1001
1001
1001
1001
1001
1001
1001
1001
1001
1001
1001
1001
1001
1001
1001
1001
1001
1001
1001
1001
1001
1001
1001
1001
1001
1001
1001
1001
1001
1001
1001
1001
1001
1001
1001
1001
1001
1001
1001
1001
1001
1001
1001
1001
1001
1001
1001
1001
1001
1001
1001
1001
1001
1001
1001
1001
1001
1001
1001
1001
1001
1001
1001
1001
1001
1001
1001
1001
1001
1001
1001
1001
1001
1001
1001
1001
1001
1001
1001
1001
1001
1001
1001
1001
1001
1001
1001
1001
1001
1001
1001
1001
1001
1001
1001
1001
1001
1001
1001
1001
1001
1001
1001
1001
1001
1001
1001
1001
1001
1001
1001
1001
1001
1001
1001
1001
1001
1001
1001
1001
1001
1001
1001
1001
1001
1001
1001
1001
1001
1001
1001
1001
1001
1001
1001
1001
1001
1001
1001
1001
1001
1001
1001
1001
1001
1001
1001
1001
1001
1001
1001
1001
1001
1001
1001
1001
1001
1001
1001
1001
1001
1001
1001
1001
1001
1001
1001
1001
1001
1001
1001
1001
1001
1001
1001
1001
1001
1001
1001
1001
1001
1001
1001
1001
1001
1001
1001
1001
1001
1001
1001
1001
1001
1001
1001
1001
1001
1001
1001
1001
1001
1001
1001
1001
1001
1001
1001
1001
1001
1001
1001
1001
1001
1001
1001
1001
1001
1001
1001
1001
1001
1001
1001
1001
1001
1001
1001
1001
1001
1001
1001
1001
1001
1001
1001
1001
1001
1001
1001
1001
1001
1001
1001
1001
1001
1001
1001
1001
1001
1001
1001
1001
1001
1001
1001
1001
1001
1001
1001
1001
1001
1001
1001
1001
1001
1001
1001
1001
1001
1001
1001
1001
1001
1001
1001
1001
1001
